36   
Iteration 42 Energy -0.14403920
O        0.5248325655   -1.0901515032   -0.4857816045
H       -0.2766185112   -0.7595342550   -0.0316504326
H        0.3010392164   -2.0281508245   -0.6632868611
O        2.8255632825   -0.1148769332    0.4526460914
H        3.1475615566   -0.8339326150    1.0022045643
H        2.0065482783   -0.4819995120    0.0591879950
O       -1.6732035679   -0.0214069407    0.7024394251
H       -2.0249599383    0.8095716093    0.3306815102
H       -1.6681542575    0.1406561708    1.6515059956
O       -0.3296841653    3.1076388605   -0.6537350457
H       -1.2167874475    2.7503211491   -0.8037041596
H        0.2368741671    2.4959524226   -1.1701975466
O        2.4154799497    1.7515938748    2.5185184193
H        1.8923979025    2.5426514660    2.2835708180
H        2.5252924242    1.2945927156    1.6681289914
O        0.9548606886    1.1855591834   -2.0099931057
H        0.9255037838    0.3472555069   -1.5221583059
H        1.7814826142    1.1173859541   -2.5109112306
O        0.9834353297    3.8603605452    1.5643852346
H        0.5249688494    3.5708798624    0.7475840984
H        0.4232122389    4.5672937400    1.8839259000
O       -2.0605749464   -4.9646108919    0.5632279122
H       -2.5245515737   -4.3237002266    1.1190096593
H       -2.5774264535   -5.7648513236    0.6710173055
O       -0.1449381899   -3.6726875108   -0.9513245519
H       -0.8266855104   -4.1308999506   -0.4273774185
H        0.4432058747   -4.3816121408   -1.2185681559
O       -3.1675244457   -2.3344196517    0.6098724200
H       -3.1748788728   -2.7136350815   -0.2706947126
H       -2.6593532079   -1.5130706185    0.4956328960
O       -2.9911452798    2.2714472203   -0.2787668145
H       -3.4824538821    2.5512890599   -1.0585460858
H       -3.5373836191    2.5708798378    0.4538684980
O        3.9109727507    0.7774081121   -1.8956881881
H        3.6485014576    0.6003872830   -0.9677290558
H        4.8665909387    0.8164154057   -1.8542944590
